112
energy=-471.95429801 pbc="T T T" virials="7.855323703794813 0.4074695591239389 -4.606601474565974 0.4074695591239389 6.434884527744237 1.9242386597043941 -4.606601474565974 1.9242386597043941 -4.146678570829803" Lattice="12.548013737 0.0 0.0 0.0 15.550308244 0.0 0.0 0.0 13.363163516" Properties=species:S:1:pos:R:3:forces:R:3
Ge 3.7628 1.94757 12.22056 -0.026794 0.543621 0.660569
Ge 5.73615 1.88799 5.53102 -0.303453 0.333102 0.154678
Ge 2.63176 5.96739 1.23486 -0.203769 -0.432543 -0.722543
Ge 0.70049 5.90062 8.0046 -0.657823 0.08655 -0.235124
Ge 3.73032 9.83884 12.26366 0.623126 -0.086512 0.358316
Ge 5.70741 9.79684 5.57644 0.156238 -0.090551 0.184934
Ge 2.60572 13.65974 1.27866 -0.017457 -0.081728 -0.672335
Ge 0.69864 13.74554 7.9636 -0.421134 -0.205813 0.196091
Ge 10.04606 1.98411 12.18204 -0.347983 -0.134757 0.80415
Ge 12.05797 1.94568 5.57429 0.351844 0.219186 -0.169875
Ge 8.88176 5.92275 1.30987 0.54173 0.240546 -1.091794
Ge 6.89437 5.90083 7.96044 0.279339 0.314648 0.040751
Ge 10.05682 9.82397 12.28132 0.197776 -0.14034 0.633843
Ge 12.05723 9.84198 5.60808 0.148885 -0.195338 0.203395
Ge 8.947 13.78873 1.31209 -0.382863 -0.390984 -0.749097
Ge 6.90894 13.64988 7.93659 0.103737 0.337364 -0.007355
Mg 3.19035 2.04277 3.17995 -0.270819 -0.134952 -0.048213
Mg 0.07292 2.03708 9.89556 -0.001047 -0.219195 -0.258548
Mg 3.24131 5.91936 10.29651 -0.000791 0.075788 0.206497
Mg 6.3137 5.87767 3.70925 -0.144699 0.058233 -0.155796
Mg 0.08553 0.01777 0.08363 -0.199756 0.036975 -0.374181
Mg 3.23373 4.01504 6.73145 -0.062453 0.012543 0.006179
Mg 0.01468 3.88521 0.07729 0.001319 0.319006 -0.02077
Mg 3.19846 0.12734 6.70883 -0.054858 -0.239121 0.183747
Mg 3.23584 9.80198 3.22905 -0.036426 -0.051282 -0.281278
Mg 0.17056 9.82083 9.915 -0.342356 0.013573 -0.338206
Mg 3.27666 13.67756 10.28249 0.000913 0.083428 -0.062285
Mg 6.37268 13.65913 3.63335 -0.013448 0.068475 0.047176
Mg 0.15923 7.83199 0.0668 -0.362486 0.084534 -0.229071
Mg 3.2455 11.83321 6.67198 -0.048565 -0.013597 0.214422
Mg 0.15219 11.74896 0.05052 -0.378891 -0.002909 -0.035604
Mg 3.19092 7.81772 6.69477 0.013155 0.15006 0.026871
Mg 9.50809 2.05543 3.1988 -0.196428 -0.194073 -0.155871
Mg 6.25832 2.1517 9.87128 0.193901 -0.163733 -0.046395
Mg 9.53352 5.95571 10.25759 -0.255008 0.088627 0.473642
Mg 12.51505 5.89568 3.60534 0.248099 0.008076 0.070018
Mg 6.30572 0.16486 0.10671 0.002051 -0.376006 -0.010656
Mg 9.46098 3.93138 6.72794 0.068939 0.047815 -0.008483
Mg 6.37547 3.98488 0.11412 -0.049265 0.100701 -0.252195
Mg 9.42297 0.12887 6.69235 -0.026218 -0.5826 0.230318
Mg 9.43677 9.79159 3.21883 0.109298 -0.001408 -0.199168
Mg 6.32563 9.81273 9.81365 -0.039704 -0.01866 0.074812
Mg 9.40689 13.64898 10.24882 0.244995 0.217775 0.167523
Mg 0.00109 13.59347 3.62744 0.176281 0.118758 0.177681
Mg 6.35453 7.8393 0.16146 -0.028848 0.039054 -0.408486
Mg 9.48374 11.72928 6.78383 0.123175 -0.157603 0.015091
Mg 6.41452 11.81361 0.07293 -0.062474 -0.213543 -0.239838
Mg 9.43061 7.82638 6.68513 0.141519 0.146102 0.133552
Se 1.41208 2.00062 12.19345 0.057995 -0.160697 0.093722
Se 1.91618 2.09325 5.53404 -1.014363 -0.175096 -0.224838
Se 4.98307 5.87359 1.34353 -0.12226 0.190943 -0.03748
Se 4.5644 5.89625 7.99784 0.145191 0.120523 -0.056548
Se 4.82397 0.17414 11.107 0.166985 0.059411 0.225839
Se 4.69144 3.81695 4.49664 0.369245 -0.119149 0.004653
Se 1.60374 4.05259 2.24716 -0.059743 0.326662 0.147652
Se 1.80836 7.78454 9.02704 -0.461293 -0.204489 -0.201359
Se 1.61811 7.81243 2.32123 -0.045747 -0.270513 0.016032
Se 1.75379 3.99995 9.00442 -0.259105 0.297715 -0.075277
Se 4.7163 3.89912 11.18847 0.304388 -0.380094 0.238816
Se 4.65164 0.05366 4.44253 0.306479 0.291885 0.101816
Se 4.76795 2.09029 1.1433 -0.07059 -0.241532 -1.079996
Se 4.69313 2.00372 7.71259 0.503689 0.081414 -0.14274
Se 1.57307 5.85491 12.29826 0.175003 0.164392 1.267214
Se 1.58949 5.93761 5.75007 -0.078886 -0.083583 0.34492
Se 1.38904 9.8256 12.22593 0.330368 -0.202888 -0.001796
Se 1.91714 9.88871 5.54313 -0.912057 -0.269211 -0.060927
Se 4.9615 13.68109 1.34951 -0.020199 0.11306 -0.20262
Se 4.58726 13.67614 7.98263 -0.011034 0.143773 -0.098274
Se 4.79838 7.99421 11.17326 -0.001048 0.057561 0.229994
Se 4.73344 11.65888 4.45063 0.089142 -0.058964 0.074111
Se 1.5881 11.74766 2.3376 0.013561 0.572495 -0.186321
Se 1.75012 0.07796 9.03063 -0.225115 -0.41651 -0.186226
Se 1.52807 15.53067 2.28061 0.235278 -0.161595 0.269
Se 1.77724 11.84907 9.00458 -0.355181 0.233027 -0.212648
Se 4.76705 11.65468 11.10674 0.282978 -0.220511 0.389442
Se 4.71507 7.91308 4.4586 0.091707 0.198874 0.214892
Se 4.82465 9.81482 1.1149 -0.269278 0.134043 -0.748974
Se 4.66075 9.82038 7.74102 0.35187 -0.06315 -0.301964
Se 1.69636 13.67077 12.29402 -0.256687 0.014304 1.521493
Se 1.658 13.7579 5.78115 -0.255064 -0.046655 -0.149045
Se 7.65065 2.041 12.25602 0.506646 0.084835 -0.352455
Se 8.075 2.00062 5.44901 -0.138813 0.111356 0.088879
Se 11.27036 5.97525 1.29674 -0.457758 -0.413571 -0.107191
Se 10.78085 5.86709 8.0614 1.152059 0.054607 -0.65165
Se 11.00214 0.11609 11.0983 0.362573 0.227106 0.248942
Se 11.00767 3.8003 4.40743 0.177896 -0.017893 0.569959
Se 7.87605 4.11442 2.39606 -0.082023 -0.274718 0.01995
Se 7.94518 7.83174 8.98293 -0.176036 -0.516158 -0.176496
Se 7.86762 7.77049 2.36021 -0.12742 0.001053 0.146678
Se 7.98009 4.07303 9.03996 -0.208206 0.019509 -0.154343
Se 11.03404 3.80688 11.05195 0.13423 0.06558 0.386367
Se 10.9897 0.112 4.48325 0.094767 0.128584 0.007886
Se 11.03981 1.96295 1.13053 -0.007051 0.027289 -1.254332
Se 11.01613 1.94616 7.71091 0.178642 0.234175 -0.012038
Se 7.96975 5.90733 12.35153 -0.224614 -0.001518 1.275256
Se 7.86235 5.90388 5.77239 0.170272 -0.144242 0.251899
Se 7.70408 9.76704 12.17475 0.044272 0.170579 0.219775
Se 8.06074 9.86071 5.51694 -0.133033 -0.27968 0.044372
Se 11.2639 13.60829 1.31457 0.110938 0.226767 -0.055768
Se 10.84527 13.62453 7.99749 0.519609 0.425743 -0.090855
Se 11.02207 7.98132 11.11382 0.442412 0.248384 0.315005
Se 10.93598 11.63972 4.50864 0.214749 0.018078 0.125992
Se 7.92144 11.85971 2.33913 -0.047592 0.418065 -0.157804
Se 7.87611 0.03576 8.96425 0.06789 -0.272507 -0.046249
Se 7.87347 0.08923 2.32532 -0.070975 -0.343477 0.108259
Se 7.98581 11.82346 9.02219 -0.296063 -0.091633 -0.047644
Se 11.06023 11.66311 11.16479 0.177118 -0.096947 0.168398
Se 11.01331 7.99034 4.47705 0.103656 0.009932 0.193602
Se 11.14632 9.75367 1.20516 -0.358041 0.150159 -1.286212
Se 11.01782 9.7338 7.78799 0.319744 0.066832 -0.399136
Se 7.96394 13.77949 12.41029 -0.239584 -0.039665 0.971735
Se 7.89843 13.59876 5.78033 0.078229 0.287869 -0.003616
112
energy=-465.29903378 pbc="T T T" virials="40.01376459122552 -3.392948583542708 -10.780358507956109 -3.392948583542708 56.67395912615014 3.816155773519898 -10.780358507956109 3.816155773519898 24.674749862574867" Lattice="12.548013737 0.0 0.0 0.0 7.775154122 0.0 0.0 0.0 26.726327032" Properties=species:S:1:pos:R:3:forces:R:3
Ge 3.71439 1.92433 12.28871 0.146491 -0.32251 -0.332331
Ge 5.76305 2.036 5.77327 0.394885 0.099241 0.000724
Ge 2.79182 5.90426 1.66326 0.320452 -0.995276 -2.908359
Ge 0.63459 5.74945 7.93386 -0.212323 0.427606 0.145529
Ge 3.77141 2.02841 25.41843 -0.059613 -0.762596 2.540919
Ge 5.84454 2.01919 19.03104 -0.526302 0.09734 -0.111274
Ge 2.71042 5.79663 14.7134 -0.7998 0.481215 -0.185767
Ge 0.83303 5.97994 21.18866 -1.356833 -0.436783 0.14146
Ge 9.91658 2.11303 12.20189 0.821231 -0.26237 0.262316
Ge 11.82633 2.00108 5.78764 1.506558 0.613013 -0.664261
Ge 9.04553 5.83321 1.73937 -1.548764 -1.119916 -2.319746
Ge 6.8224 5.62865 7.97967 -0.37966 0.529294 0.147221
Ge 10.06089 2.08446 25.33432 -1.858175 -0.416372 3.772529
Ge 11.87337 2.15893 18.89081 2.252182 -0.315579 0.099791
Ge 8.95998 5.78522 14.66037 -0.767518 -0.109273 -0.292728
Ge 6.87003 5.90302 21.30525 -0.311421 -0.343709 0.072025
Mg 3.02295 1.87701 3.171 0.470077 0.338481 0.133659
Mg 0.19769 1.88745 9.89919 -0.499375 0.010284 -0.383091
Mg 3.18037 5.77489 10.49416 -0.041614 -0.15365 -0.216039
Mg 6.28159 5.98654 3.93232 -0.088083 0.060525 -0.133783
Mg 0.05896 0.10976 26.69544 0.284809 0.247999 0.623674
Mg 3.2833 3.83327 6.95036 -0.688265 0.337813 0.144472
Mg 12.53603 4.21221 26.69773 0.405295 -0.604415 0.405465
Mg 2.92411 0.14687 6.89321 0.47733 -1.054126 0.467974
Mg 3.19802 1.94854 16.53616 -0.124118 -0.044489 0.172957
Mg 0.19694 2.06851 23.13543 0.103891 -0.031971 -0.01966
Mg 3.34579 5.71969 23.88936 -0.146325 0.24048 -0.259211
Mg 6.3296 5.87508 17.12647 -0.12042 0.007138 -0.168478
Mg 0.07782 0.1055 13.34863 -0.103754 -0.214727 0.649893
Mg 3.24922 3.99803 19.91899 -0.366458 0.098138 0.466764
Mg 0.06174 4.04749 13.44807 -0.041025 -0.659493 -0.016014
Mg 3.40155 0.15396 20.20873 -0.913195 -0.359719 -0.432203
Mg 9.29054 2.12292 3.05261 0.532473 -0.378649 0.408547
Mg 6.24624 1.9243 9.93297 0.098211 -0.102753 -0.085362
Mg 9.51723 5.96156 10.28985 0.094037 -0.373958 0.619458
Mg 12.3629 5.95244 3.73068 0.225608 -0.271757 0.45003
Mg 6.27337 7.75308 0.10956 0.594415 0.34452 0.84913
Mg 9.39177 3.963 6.91556 0.341288 -0.481401 -0.318228
Mg 6.21379 4.01423 0.18276 0.596883 -0.680662 -0.194114
Mg 9.3641 7.76775 6.98726 0.659193 -0.008003 -0.202866
Mg 9.31362 1.97983 16.4333 0.535025 -0.117586 0.137833
Mg 6.53183 1.9699 23.04005 -0.413062 0.36957 0.632094
Mg 9.49327 5.96887 23.75704 -0.349569 -0.024468 -0.028241
Mg 12.5412 5.94227 17.10535 0.310066 -0.306474 -0.644133
Mg 6.37626 7.63039 13.4281 0.011681 -0.249185 -0.193994
Mg 9.58272 4.03589 20.12967 -0.183492 -0.156275 0.448741
Mg 6.30111 3.6965 13.5665 0.083006 0.49036 -0.239023
Mg 9.65536 0.08668 19.97886 -0.628638 -0.099949 0.160092
Se 1.36213 1.9709 12.14659 0.66561 0.510383 0.678937
Se 1.70862 1.83557 5.63072 -0.719383 1.179911 -0.486037
Se 4.96864 5.8489 1.39376 1.307761 0.358305 0.485382
Se 4.49709 5.90144 8.149 0.11137 -0.17594 -0.1868
Se 4.72976 0.03283 11.17377 0.162433 0.55671 0.215236
Se 4.72046 3.9659 4.84267 0.231244 -0.339461 -0.657238
Se 1.63872 4.26493 2.55246 -0.98401 -2.722512 0.553943
Se 1.52424 7.46784 9.30611 0.32051 0.469842 -0.547094
Se 1.66254 7.47331 2.56317 -1.663403 3.612097 1.072846
Se 1.56916 4.01401 9.10259 0.676032 -0.873736 0.347189
Se 4.74101 3.83415 11.30761 0.155771 -0.390131 0.005204
Se 4.7265 0.18821 4.77829 -0.430056 -0.155609 -0.574687
Se 4.96237 1.94829 1.19531 -0.973187 0.223151 -0.41617
Se 4.65589 1.87375 7.86351 0.23098 0.050153 0.511325
Se 1.65381 5.96792 12.57253 0.030018 -0.390144 0.005623
Se 1.58256 5.76637 5.83312 0.179213 0.067639 -0.246499
Se 1.54921 2.0054 25.58425 -1.231684 0.476839 -0.04803
Se 1.73671 2.06599 18.98693 -0.179206 -0.256216 -0.532158
Se 4.96383 5.74667 14.67872 0.917746 -0.111311 0.303337
Se 4.46283 5.9317 21.46925 1.028515 -0.32489 -0.245507
Se 5.08814 0.36722 24.7167 -0.405457 -2.073231 -1.825354
Se 4.72077 3.74452 17.85176 0.482206 0.573147 -0.387062
Se 1.64413 4.04675 15.81977 -0.30208 -0.440947 -0.101795
Se 1.75972 7.73731 22.35236 0.301443 0.474596 0.542736
Se 1.69937 7.66661 15.75119 -0.344395 0.16182 -0.06736
Se 1.72852 4.04991 22.20812 0.184054 -0.030388 0.555402
Se 4.90882 3.70663 24.60498 0.833008 2.440131 -1.212569
Se 4.77725 0.23119 17.96243 -0.037285 -0.726418 -0.348858
Se 4.85232 1.71469 14.36027 -0.713839 0.293048 0.755846
Se 4.70958 2.07952 21.11472 0.598617 0.473244 0.442313
Se 1.78899 6.05368 25.89857 -0.250676 -0.354555 0.949049
Se 1.5999 5.84262 19.02115 0.958464 0.428483 0.104986
Se 7.61494 1.86208 12.22496 0.063159 0.074583 -0.187921
Se 8.1141 1.85643 5.7339 -0.445972 0.622257 -0.596443
Se 11.15838 6.03012 1.32225 2.376794 -0.081606 -0.215597
Se 10.90087 5.8069 8.0837 -0.70361 0.169163 -0.339424
Se 11.01652 0.1967 11.2917 -0.175749 -0.107515 -0.597976
Se 10.82947 3.84396 4.57468 0.284105 -0.042329 0.225505
Se 7.76124 4.17363 2.58969 -0.303052 -1.23861 0.150684
Se 7.88156 7.48103 9.02977 -0.516565 0.730874 0.704703
Se 8.00347 7.59121 2.44283 -1.537216 2.554105 1.199741
Se 7.92134 3.86903 9.06526 -0.080971 -0.196087 0.397694
Se 11.16929 3.8425 11.11984 -0.539749 0.048577 0.255633
Se 10.93843 0.24842 4.63443 -0.698787 -0.764842 -0.520518
Se 11.07535 2.07242 1.06578 0.033748 0.255153 -0.935496
Se 11.00353 1.95206 7.92387 -0.437667 0.052037 0.444221
Se 7.87023 5.67707 12.48911 0.422712 0.001244 0.269519
Se 7.96413 5.87361 5.92418 -0.411753 -0.267809 -0.479983
Se 7.83444 1.94394 25.53904 -0.873539 0.209493 -0.050407
Se 8.10072 2.07373 18.84801 0.921058 -0.17491 0.21814
Se 11.27623 5.87153 14.70172 0.04019 0.182875 0.217184
Se 10.97768 6.02323 21.219 0.129419 -0.303667 0.777764
Se 11.13975 0.35043 24.5995 1.066323 -2.737565 -1.783044
Se 10.88238 3.98283 17.91052 -0.22651 0.078315 -0.847867
Se 7.78366 3.93822 15.75376 0.223475 0.658227 -0.10048
Se 7.88536 7.7584 22.34311 0.82864 -0.5345 -0.129357
Se 7.89526 7.67575 15.71425 -0.196758 -0.543705 -0.0673
Se 7.99556 3.99055 22.2802 -0.002561 0.668756 0.189688
Se 11.05422 3.81036 24.54093 1.562616 3.106148 -1.718097
Se 11.21043 0.1845 17.86041 -1.197351 0.476768 -0.489157
Se 10.94789 1.88271 14.36271 0.055578 0.658845 0.135197
Se 11.08026 2.00586 21.04806 -0.518538 0.216373 0.770788
Se 7.72898 5.89495 25.95836 1.253969 -0.472203 0.182293
Se 7.96254 5.84628 19.19785 -0.277358 0.432674 -0.341452
56
energy=-236.10780832 pbc="T T T" virials="-18.060102846848093 -0.4586477729352276 0.5297952062876893 -0.4586477729352276 -15.564853313681887 0.37726112309956616 0.5297952062876893 0.37726112309956616 -14.141438049425826" Lattice="6.40078864 0.0 0.0 0.0 15.864540547 0.0 0.0 0.0 13.633199169" Properties=species:S:1:pos:R:3:forces:R:3
Ge 3.77919 1.96588 12.39788 -0.300991 0.230608 -0.388949
Ge 5.7745 1.97487 5.52746 -0.123546 0.094486 0.055226
Ge 2.57516 5.87757 1.10799 0.275563 -0.003041 0.718099
Ge 0.49927 5.85128 7.92451 0.646707 -0.114863 -0.022032
Ge 3.78648 9.87342 12.36585 -0.624647 -0.478903 -0.361458
Ge 5.77974 9.79853 5.6031 -0.265398 -0.055299 0.010192
Ge 2.52778 13.7216 1.06681 0.887501 0.08274 1.066213
Ge 0.50868 13.76158 7.97076 0.520193 0.040804 -0.038228
Mg 3.13842 2.00139 3.04914 0.070114 -0.044269 0.040563
Mg 0.02392 1.83713 9.86607 -0.005848 0.160853 0.148561
Mg 3.21244 5.88472 10.36895 -0.042559 -0.011113 0.073297
Mg 6.3526 5.97497 3.58237 -0.135695 -0.263502 0.022165
Mg 0.05561 15.71322 13.6 -0.229325 0.416096 -0.03102
Mg 3.082 3.91909 6.70188 0.138318 -0.097742 0.066006
Mg 6.36878 3.9003 13.52246 0.025233 0.18198 0.133601
Mg 3.23702 15.79887 6.77446 -0.056571 0.005711 -0.116249
Mg 3.20099 9.84983 3.19529 -0.046208 -0.014693 -0.288407
Mg 6.38352 9.8695 9.91901 0.085332 -0.169668 -0.009817
Mg 3.18523 13.78374 10.38492 0.067756 0.098933 0.083773
Mg 0.04472 13.81654 3.61695 -0.211305 -0.057644 -0.104235
Mg 6.36526 7.81926 13.57477 0.009406 0.277422 0.058166
Mg 3.08545 11.77115 6.66964 0.116715 -0.096638 0.11958
Mg 6.25304 11.81296 13.54845 0.265811 0.134459 0.115229
Mg 3.14092 7.8417 6.89795 0.098037 0.064199 -0.498508
Se 1.36799 1.94558 12.3304 0.432632 -0.199683 -0.071313
Se 1.71271 1.9786 5.44082 0.285262 -0.290391 0.038801
Se 4.95644 5.89972 1.17436 -0.116418 -0.172464 0.081056
Se 4.59016 5.85512 7.97483 -0.403988 -0.084252 0.152868
Se 4.78666 0.1171 11.28996 0.104833 -0.262131 -0.057784
Se 4.637 3.81529 4.49166 0.280257 0.04937 -0.135726
Se 1.49477 4.04934 2.25928 0.099925 0.05232 -0.282391
Se 1.56796 7.71953 8.9825 -0.116885 -0.026199 0.408902
Se 1.58709 7.68685 2.343 -0.00778 0.147436 -0.413903
Se 1.66855 4.01866 9.01466 -0.342323 0.160265 0.003081
Se 4.86819 3.80632 11.21634 -0.247347 -0.269077 0.227695
Se 4.78111 0.14282 4.4014 -0.200191 -0.211413 0.100791
Se 4.81089 1.93892 0.88811 -0.015109 -0.08709 0.218597
Se 4.80218 1.95882 7.71846 -0.120169 -0.128712 -0.121112
Se 1.58054 5.94158 12.63096 -0.059089 -0.206924 -0.547165
Se 1.52875 5.87986 5.76265 -0.005291 0.100101 0.179331
Se 1.37947 9.84598 12.2988 0.237143 0.004525 0.057385
Se 1.71437 9.75552 5.48188 0.267543 0.034781 0.157659
Se 4.9482 13.84269 1.2049 -0.212344 -0.269299 -0.00325
Se 4.5746 13.68548 8.03593 -0.104147 0.282715 -0.11355
Se 4.81253 7.9523 11.28663 -0.015665 0.379449 0.0572
Se 4.77321 11.67492 4.5218 -0.067475 0.056016 -0.133231
Se 1.53881 11.8785 2.24648 -0.061441 0.198095 -0.203492
Se 1.63238 15.61294 9.06977 -0.144782 -0.120727 -0.202313
Se 1.61982 15.58118 2.30382 -0.170064 -0.048046 -0.377899
Se 1.65352 11.91645 9.02818 -0.22457 0.126086 -0.049564
Se 4.79691 11.69016 11.2055 0.043887 0.088572 0.138525
Se 4.71092 7.96937 4.47213 -0.046131 0.195854 0.238012
Se 4.76675 9.84245 0.87253 0.021791 -0.050231 0.342533
Se 4.72658 9.84833 7.76894 0.125981 -0.058935 -0.207594
Se 1.58504 13.7624 12.59436 -0.320177 -0.03382 -0.603025
Se 1.57696 13.77154 5.79185 -0.074507 0.247803 0.286473
56
energy=-235.01972362 pbc="T T T" virials="15.198954697676701 2.091233313630316 3.464321262316134 2.091233313630316 7.633580973921717 -0.5759289355524655 3.464321262316134 -0.5759289355524655 19.312994366377076" Lattice="6.274006869 0.0 0.0 0.0 7.775154122 0.0 0.0 0.0 26.726327032" Properties=species:S:1:pos:R:3:forces:R:3
Ge 3.70536 2.03859 12.24685 0.663038 0.226754 -0.33405
Ge 5.77331 1.97553 5.61886 0.148882 -0.060258 0.054821
Ge 2.49502 5.84307 1.25189 1.023008 0.111767 2.706858
Ge 0.62232 5.85893 7.90834 -0.131918 -0.276144 0.730218
Ge 3.75788 1.9985 25.81012 -2.211329 -0.17063 -4.93776
Ge 5.78413 1.97395 19.12067 -0.176287 0.086947 -0.573519
Ge 2.57099 5.82632 14.6164 -0.013941 -0.100773 0.311265
Ge 0.64204 5.9178 21.40919 -0.104761 -0.250364 -0.435131
Mg 3.28019 1.91207 3.1327 -0.421016 0.15708 0.301706
Mg 0.11214 1.90115 9.77937 -0.148483 0.53628 0.280806
Mg 3.1687 5.94463 10.35844 -0.028569 -0.161448 0.089055
Mg 0.03609 5.85648 3.87841 -0.241066 -0.099487 -0.335222
Mg 6.14515 7.71688 0.22638 0.281285 0.092388 -0.149494
Mg 3.2844 3.93376 6.76671 -0.349715 0.10728 0.357095
Mg 6.19127 3.99148 0.1017 0.360144 -0.077262 -0.115667
Mg 3.15185 0.002 6.81914 0.121906 0.438703 0.000353
Mg 3.15725 1.77608 16.55887 -0.026917 0.351819 0.255532
Mg 0.10282 2.00918 23.22013 0.000443 0.060779 0.123667
Mg 3.17699 5.95132 23.82325 -0.010843 -0.200102 -0.185256
Mg 0.00045 5.71946 17.10397 0.092674 0.10361 0.236428
Mg 6.20649 0.05872 13.49924 0.153689 0.07274 -0.052374
Mg 3.19378 3.85481 20.17688 -0.244105 0.589302 0.059632
Mg 0.03216 3.89272 13.44525 -0.010422 0.31032 -0.101324
Mg 3.29545 0.03869 20.21535 -0.382728 -0.247944 0.020001
Se 1.41937 2.037 12.15001 -0.661358 -0.341137 0.080505
Se 1.80274 2.01075 5.5697 0.394827 -0.109759 -0.19242
Se 4.85315 5.76773 1.55278 -0.051149 0.300156 -0.547124
Se 4.60612 5.91123 8.03883 -0.595233 -0.144193 -0.075247
Se 4.78561 0.19523 11.11791 -0.152241 0.172476 0.456537
Se 4.70031 3.8027 4.58293 0.067815 0.082209 -0.501689
Se 1.60336 4.04949 2.52167 -0.26479 -0.332866 -0.377228
Se 1.58789 7.69291 9.01947 0.516782 0.033467 0.099237
Se 1.61559 7.61455 2.65206 -0.050931 0.194811 -0.93131
Se 1.66541 4.04014 8.99943 0.11169 -0.029084 0.109903
Se 4.75315 3.92137 11.14946 0.142442 -0.582795 0.245244
Se 4.6936 0.13499 4.60208 0.051081 -0.11234 -0.276891
Se 4.76429 2.04174 0.92186 1.574216 -0.27984 4.619117
Se 4.79914 2.0042 7.74065 -0.389484 -0.139974 0.332113
Se 1.54836 5.88436 12.47084 0.028037 0.152272 0.135869
Se 1.61079 5.88175 5.84574 0.556251 -0.10946 -0.524096
Se 1.41845 1.98691 25.60955 -0.140391 -0.119818 0.452571
Se 1.79194 1.98754 18.98448 0.435975 -0.219731 -0.169147
Se 4.9298 5.84538 14.75329 -0.246311 0.110002 -0.103515
Se 4.62373 5.83255 21.42476 -0.593586 0.04096 0.190153
Se 4.73363 0.19534 24.47403 0.105505 0.079955 0.823056
Se 4.6895 3.74791 17.9933 -0.025301 0.139749 -0.434549
Se 1.53458 3.92625 15.69766 0.180554 0.223455 -0.024023
Se 1.65617 7.74715 22.41423 0.27912 0.35191 0.388661
Se 1.51437 7.6273 15.81804 -0.019546 -0.157348 -0.335692
Se 1.67846 4.08028 22.43177 0.141865 -0.243141 0.402079
Se 4.72099 3.77914 24.48474 0.039136 0.170965 0.528929
Se 4.7395 0.15249 18.03041 0.119563 -0.40798 -0.435418
Se 4.66795 2.10585 14.42659 0.110046 -0.457542 -0.107768
Se 4.7058 2.02048 21.17828 0.210921 -0.178194 0.758725
Se 1.48137 5.86605 26.0255 -0.279379 0.260025 -2.429111
Se 1.64268 5.87318 19.28118 0.064363 0.023525 -0.467387
56
energy=-235.97810211 pbc="T T T" virials="4.933592662883989 -0.5846033483760437 -0.3849535174636772 -0.5846033483760437 4.1136246636292295 -1.327575761729323 -0.3849535174636772 -1.327575761729323 2.1444597061271113" Lattice="12.548013737 0.0 0.0 0.0 7.775154122 0.0 0.0 0.0 13.363163516" Properties=species:S:1:pos:R:3:forces:R:3
Ge 3.78609 1.94298 12.26109 -0.354487 0.026492 -0.307105
Ge 5.75324 1.98407 5.52995 0.16589 -0.135323 0.329644
Ge 2.61614 5.90402 1.1742 0.587371 0.01365 0.64892
Ge 0.50096 5.8155 7.89485 1.289102 -0.034744 -0.200042
Ge 10.1071 1.94864 12.23608 -0.619363 0.35111 0.473993
Ge 12.13086 1.94971 5.56654 -1.287345 0.182689 -0.065317
Ge 8.86406 5.79171 1.25082 0.748925 0.305235 0.865832
Ge 6.91517 5.94913 7.94798 -0.193902 -0.525752 0.264708
Mg 3.22926 2.04317 3.1562 -0.041692 0.122272 0.036696
Mg 0.16002 1.89663 9.75844 -0.247897 0.112507 0.009743
Mg 3.18313 5.83633 10.25309 0.000245 -0.002119 0.357243
Mg 6.36179 5.91247 3.65217 -0.121985 -0.081411 0.199868
Mg 0.04432 0.05343 0.1076 0.084525 -0.06449 -0.034373
Mg 3.27779 3.9541 6.68894 -0.190521 0.14639 0.058033
Mg 0.0769 3.80482 0.09835 0.200072 0.504388 -0.007337
Mg 3.27496 0.0347 6.84133 -0.35053 0.083399 -0.308333
Mg 9.45354 1.9401 3.2435 0.26558 0.057134 -0.38408
Mg 6.29301 2.15815 9.88259 -0.050323 -0.217335 -0.122879
Mg 9.48262 5.80027 10.36568 -0.213683 -0.009556 0.066024
Mg 12.53154 5.97831 3.61237 0.382575 -0.102661 0.144485
Mg 6.40643 0.01793 0.10292 -0.12438 0.174217 -0.138048
Mg 9.53869 3.93692 6.67984 -0.132451 0.152498 0.061621
Mg 6.37443 3.7969 0.10372 -0.133334 0.535736 0.253544
Mg 9.37878 0.08993 6.77171 -0.093646 0.208194 -0.15832
Se 1.40452 1.97642 12.12567 0.403297 -0.164445 0.189828
Se 1.87168 1.98353 5.52431 0.315951 -0.206491 0.004753
Se 5.04654 5.90538 1.35479 -0.776806 -0.264097 -0.391148
Se 4.5682 5.90303 7.99827 0.284589 -0.212316 -0.087871
Se 4.8015 0.16635 11.02649 0.004349 0.171481 0.510827
Se 4.8389 3.83626 4.45784 -0.533308 0.273396 -0.166414
Se 1.64327 4.06926 2.41418 -0.101496 0.385967 -0.487908
Se 1.67211 7.62346 9.0326 -0.367727 -0.022797 -0.306859
Se 1.68814 0.04868 2.33997 -0.365485 -0.653794 -0.38872
Se 1.70343 3.97634 8.96739 -0.416378 0.255795 -0.234842
Se 4.74483 3.88581 11.22098 0.132964 -0.229451 0.158842
Se 4.68192 0.17727 4.45388 0.149848 -0.187549 0.182578
Se 4.78531 1.97666 1.05437 0.016015 -0.225068 -0.147284
Se 4.77328 2.04944 7.72018 0.097341 -0.151918 -0.172222
Se 1.5849 5.87105 12.41136 -0.006171 -0.052325 0.16849
Se 1.6676 5.84165 5.73453 -0.499884 0.228074 0.432194
Se 7.6955 2.00829 12.14422 0.598178 -0.438314 0.224094
Se 8.07689 2.07611 5.425 0.048799 -0.348687 0.548354
Se 11.26902 5.81025 1.30358 -0.459484 0.079652 -0.263519
Se 10.74196 5.95145 7.99912 0.0817 -0.250678 0.009606
Se 11.01347 0.10153 11.15092 0.417613 -0.180691 -0.009766
Se 11.0484 3.83183 4.40732 0.155991 -0.522091 0.464475
Se 7.91365 3.9693 2.4402 -0.199693 0.244198 -0.311382
Se 7.87531 7.75442 9.09053 0.273293 -0.00421 -0.056898
Se 7.88395 7.68634 2.4621 0.21107 -0.289448 -0.693233
Se 7.91651 4.01304 8.98862 0.144576 0.449943 -0.127499
Se 11.09748 3.76402 11.08341 0.172096 -0.004964 0.22045
Se 10.91549 0.09378 4.50861 0.471425 0.406753 0.319281
Se 11.09153 1.99576 1.12429 -0.447084 -0.256012 -0.59124
Se 10.95543 2.00885 7.72092 0.632093 -0.086085 -0.263138
Se 7.8818 5.77747 12.51908 -0.062844 0.181407 -0.620642
Se 7.88966 5.84625 5.81454 0.074441 0.260813 -0.227538
112
energy=-473.19817798 pbc="T T T" virials="-9.78662893816291 0.46496973729351737 0.31529286988849203 0.46496973729351737 -8.784241900135129 -0.9769347560130494 0.31529286988849203 -0.9769347560130494 -8.562704700581719" Lattice="12.676063538 0.0 0.0 0.0 7.85449791 0.0 0.0 0.0 26.999063492" Properties=species:S:1:pos:R:3:forces:R:3
Ge 3.73045 1.97628 12.27718 -0.171044 0.13359 0.165694
Ge 5.77096 1.94274 5.5703 -0.522502 -0.080777 -0.086288
Ge 2.62062 5.91068 1.19239 -0.791299 0.232711 -0.007185
Ge 0.56568 5.84824 7.97875 0.229264 0.359327 -0.170543
Ge 3.73484 1.99299 25.88013 -0.155186 -0.052023 -0.5152
Ge 5.74199 1.958 19.11469 0.528352 -0.225173 -0.818545
Ge 2.58704 5.87458 14.70276 -0.130939 0.280292 -0.026337
Ge 0.53111 5.9476 21.44187 0.426767 -0.701974 -0.277724
Ge 10.05485 1.93652 12.3106 0.488853 0.151677 -0.371355
Ge 12.10667 1.92722 5.5598 0.020333 0.268633 0.330543
Ge 8.90783 5.91945 1.19688 0.680217 -0.226893 -0.266606
Ge 6.87914 5.888 7.95362 -0.015537 0.111653 0.153969
Ge 10.06659 1.95781 25.83612 -0.262162 0.22103 -0.07518
Ge 12.12374 1.91217 19.03021 0.175847 0.339921 0.134782
Ge 8.93438 5.82368 14.64568 -0.239375 0.552904 0.187132
Ge 6.91439 5.88678 21.43357 -0.019295 0.306521 0.167702
Mg 3.21196 1.94474 3.16948 -0.328487 0.087911 -0.123798
Mg 0.02598 1.927 9.87265 0.103829 0.109376 0.010047
Mg 3.2085 5.92859 10.3743 -0.003629 -0.094448 0.084968
Mg 6.30044 5.88172 3.54597 0.052119 0.080328 0.28274
Mg 12.57022 7.81562 0.00437 0.511127 0.159081 0.041513
Mg 3.19417 3.90688 6.69623 -0.010924 0.160417 0.204546
Mg 0.00347 3.92311 0.08002 0.166833 -0.051907 -0.267405
Mg 3.14406 0.0383 6.76744 0.027517 -0.232665 -0.270221
Mg 3.22223 1.94739 16.61658 -0.053766 0.042981 -0.05441
Mg 12.63465 1.98073 23.27861 0.314656 0.040046 0.274073
Mg 3.20559 5.86504 23.91493 -0.010486 -0.006122 -0.081503
Mg 6.30362 5.80748 17.0948 -0.033674 0.304384 -0.029452
Mg 0.0204 7.77714 13.39269 -0.076027 0.241348 0.334971
Mg 3.14181 3.96018 20.26412 0.01264 -0.085768 0.014248
Mg 12.64512 3.87516 13.54512 0.103732 0.061104 -0.205401
Mg 3.18099 7.82493 20.28078 -0.133058 0.154079 -0.300317
Mg 9.47097 1.92616 3.12793 0.073508 0.094497 -0.021123
Mg 6.39185 1.92006 9.95859 -0.152276 0.23259 -0.433757
Mg 9.51637 5.90442 10.34765 0.103047 0.036241 0.088548
Mg 12.57343 5.8948 3.69853 0.464548 -0.040549 -0.163467
Mg 6.32746 0.00894 26.91904 -0.078237 -0.045287 0.100099
Mg 9.49936 3.94459 6.7044 0.001612 0.080524 0.189601
Mg 6.38433 3.92861 26.99053 -0.141311 -0.021248 0.086925
Mg 9.49694 0.04323 6.8142 -0.059021 -0.047675 -0.272813
Mg 9.45703 1.97291 16.63398 0.103076 -0.141293 0.00482
Mg 6.32569 1.95372 23.27521 0.253773 0.031373 0.489455
Mg 9.57166 5.83659 23.92654 0.05918 0.093254 -0.122584
Mg 12.6543 5.93041 17.09938 -0.03819 -0.058639 -0.021038
Mg 6.36071 0.02207 13.4653 -0.001745 -0.152576 0.19526
Mg 9.48225 3.95265 20.21046 0.002968 -0.072039 -0.026109
Mg 6.38295 3.91068 13.55608 -0.11227 0.086856 -0.180076
Mg 9.51708 7.82853 20.2843 -0.083752 0.078715 -0.046031
Se 1.38129 1.92589 12.25405 0.065972 0.150034 -0.050806
Se 1.76124 1.97453 5.51932 0.117331 -0.05544 -0.131208
Se 4.93326 5.93923 1.23873 0.45369 -0.137775 -0.102477
Se 4.53804 5.91106 8.02409 0.141395 -0.140484 -0.099132
Se 4.7915 0.15315 11.2338 0.037525 -0.403239 -0.204708
Se 4.75075 3.8057 4.48137 -0.103879 0.025199 -0.057525
Se 1.55747 4.05652 2.26748 0.103163 0.060666 0.206257
Se 1.70267 7.74161 8.97438 -0.474212 -0.022974 0.290201
Se 1.54194 7.77901 2.29952 0.032658 -0.374744 -0.167229
Se 1.68194 4.0529 9.02415 -0.151582 -0.284091 0.192274
Se 4.81773 3.80577 11.25709 -0.006264 0.215791 -0.244903
Se 4.69708 0.11978 4.4456 0.13989 -0.059046 0.161702
Se 4.73902 1.95464 1.00899 0.361213 0.04497 -0.061719
Se 4.72933 1.91792 7.70559 0.255251 0.245494 0.233085
Se 1.56627 5.85882 12.53002 0.191482 -0.194915 -0.000163
Se 1.59214 5.8705 5.81631 -0.199244 0.054678 -0.150471
Se 1.38438 1.95347 25.7865 0.03745 0.00525 -0.191617
Se 1.8046 1.97623 18.9866 -0.057204 -0.149075 0.024978
Se 4.93231 5.88799 14.69478 0.142675 0.069687 0.184774
Se 4.55282 5.92603 21.47899 0.178539 -0.194647 0.246374
Se 4.77 0.1474 24.66275 -0.054642 0.287419 0.259843
Se 4.7213 3.81304 18.00752 -0.129322 -0.097197 -0.01614
Se 1.52104 4.05542 15.79316 0.091997 -0.110112 0.053849
Se 1.59667 7.70996 22.53221 0.123179 0.469634 0.217896
Se 1.56968 7.77533 15.79744 -0.062132 -0.340656 -0.31011
Se 1.63139 4.06221 22.51558 -0.20474 0.106049 -0.021187
Se 4.83502 3.85368 24.78024 -0.119693 -0.311898 -0.051489
Se 4.74137 0.10174 17.92872 0.004736 0.24981 0.316735
Se 4.78996 1.98683 14.40292 -0.183749 -0.1378 0.456609
Se 4.77739 1.95439 21.22059 -0.535793 0.054107 0.270183
Se 1.58641 5.87954 26.00922 -0.01866 0.060732 0.366179
Se 1.58485 5.87526 19.27315 -0.205089 0.17043 0.086188
Se 7.7195 1.9648 12.23569 0.13846 0.036295 0.161355
Se 8.06229 1.99755 5.47931 0.722436 -0.115507 0.032255
Se 11.31902 5.89922 1.27145 -0.64182 -0.104764 0.141491
Se 10.89514 5.92685 8.02377 0.072321 -0.179665 -0.112569
Se 11.15558 0.07926 11.20579 -0.25481 0.23847 -0.004184
Se 11.04594 3.76812 4.47105 -0.091897 0.012888 -0.015782
Se 7.88676 4.05692 2.26639 -0.01704 -0.005083 0.060631
Se 7.94271 7.7852 8.98291 -0.007921 -0.142346 0.203725
Se 7.9066 7.75777 2.2494 -0.323959 0.100631 0.124937
Se 8.00433 4.09957 9.05703 -0.233354 -0.244136 -0.108973
Se 11.12976 3.82073 11.22182 -0.091691 -0.375234 0.081954
Se 11.07366 0.11696 4.48158 -0.372687 -0.147585 -0.0273
Se 11.06512 1.98144 0.97035 0.01755 -0.055395 0.345773
Se 11.08404 1.96086 7.74092 0.069084 0.161316 -0.222856
Se 7.92122 5.88137 12.497 -0.145205 -0.070657 0.11396
Se 7.87733 5.91883 5.81627 0.130219 0.022998 -0.334479
Se 7.71743 1.94163 25.76037 0.063313 0.147501 -0.261837
Se 8.11466 1.97155 19.04514 -0.204309 -0.094198 -0.118951
Se 11.24518 5.87039 14.64211 0.444204 0.000894 0.377217
Se 10.88778 5.85063 21.49666 -0.197222 0.12179 0.131255
Se 11.15183 0.1836 24.74524 -0.061614 -0.560004 -0.309557
Se 11.05569 3.76092 17.96453 0.052519 0.185686 -0.106828
Se 7.89701 4.03462 15.82836 -0.037457 -0.084901 -0.183806
Se 8.0093 7.72454 22.57785 -0.221278 -0.192994 -0.208017
Se 7.9095 7.71219 15.76968 -0.048699 -0.292372 -0.158731
Se 7.9576 4.05552 22.52521 0.042897 -0.108475 0.014605
Se 11.1535 3.76411 24.7349 -0.071993 0.284557 -0.021623
Se 11.03919 0.11299 17.97415 -0.097528 -0.30324 -0.118867
Se 11.08004 1.94529 14.44372 -0.052373 -0.217937 0.188651
Se 11.07338 1.98747 21.17504 0.013874 -0.105401 0.022772
Se 7.94105 5.89697 26.00481 -0.028985 0.00203 0.224491
Se 7.87891 5.90218 19.2623 0.163507 0.04904 0.056804
56